/*--------------------------------*- C++ -*----------------------------------*\
| =========                 |                                                 |
| \\      /  F ield         | OpenFOAM: The Open Source CFD Toolbox           |
|  \\    /   O peration     | Version:  v1912                                 |
|   \\  /    A nd           | Website:  www.openfoam.com                      |
|    \\/     M anipulation  |                                                 |
\*---------------------------------------------------------------------------*/
FoamFile
{
    version     2.0;
    format      ascii;
    class       volVectorField;
    location    "1";
    object      U;
}
// * * * * * * * * * * * * * * * * * * * * * * * * * * * * * * * * * * * * * //

dimensions      [0 1 -1 0 0 0 0];


internalField   nonuniform List<vector>
10
(
(-0.02579153 0.037347925 -6.9346243e-19)
(0.2127534 -0.12902961 1.2186181e-19)
(0.59727524 -0.34578885 -3.6724275e-19)
(0.89418361 -0.49243138 -5.426184e-19)
(1.0565818 -0.55078691 1.4596629e-19)
(1.1288631 -0.55429283 2.9193944e-19)
(1.1549353 -0.52889192 -9.7057067e-20)
(1.1515018 -0.48853728 7.4120175e-20)
(1.1347334 -0.44443228 1.0826308e-19)
(1.1174498 -0.4025236 8.3956463e-21)
)
;
    }
    sym1
    {
        type            symmetryPlane;
    }
    sym2
    {
        type            symmetryPlane;
    }
    in
    {
        type            fixedValue;
        value           uniform (1 0 0);
    }
    cylinder
    {
        type            fixedValue;
        value           uniform (0 0 0);
    }
    back
    {
        type            empty;
    }
    front
    {
        type            empty;
    }
}


// ************************************************************************* //
